<?xml version="1.0" encoding="UTF-8"?>

<!-- generated on 2025-11-28 11:41:20 by Eclipse SUMO GUI Version 1.21.0
<sumoConfiguration xmlns:xsi="http://www.w3.org/2001/XMLSchema-instance" xsi:noNamespaceSchemaLocation="http://sumo.dlr.de/xsd/sumoConfiguration.xsd">

    <input>
        <net-file value="C:\Users\ragha\OneDrive\Desktop\capy new\amman.net.xml"/>
        <route-files value="C:\Users\ragha\OneDrive\Desktop\capy new\amman_extreme_rush.rou.xml"/>
    </input>

    <output>
        <tripinfo-output value="C:\Users\ragha\OneDrive\Desktop\capy new\amman.tripinfo.xml"/>
    </output>

    <time>
        <begin value="0"/>
        <end value="3600"/>
    </time>

    <processing>
        <scale value="2.5"/>
        <time-to-teleport value="-1"/>
    </processing>

    <emissions>
        <device.emissions.probability value="1.0"/>
    </emissions>

</sumoConfiguration>
-->

<tripinfos xmlns:xsi="http://www.w3.org/2001/XMLSchema-instance" xsi:noNamespaceSchemaLocation="http://sumo.dlr.de/xsd/tripinfo_file.xsd">
    <tripinfo id="veh_0" depart="1.00" departLane="E0_0" departPos="5.10" departSpeed="0.00" departDelay="0.80" arrival="27.00" arrivalLane="E9_0" arrivalPos="92.80" arrivalSpeed="13.95" duration="26.00" routeLength="194.90" waitingTime="0.00" waitingCount="0" stopTime="0.00" timeLoss="12.02" rerouteNo="0" devices="tripinfo_veh_0 emissions_veh_0" vType="car" speedFactor="1.06" vaporized="">
        <emissions CO_abs="1952.017410" CO2_abs="84170.777135" HC_abs="10.789302" PMx_abs="1.336465" NOx_abs="33.591785" fuel_abs="26847.183937" electricity_abs="0"/>
    </tripinfo>
    <tripinfo id="veh_14" depart="1.00" departLane="-E9_0" departPos="5.10" departSpeed="0.00" departDelay="0.20" arrival="27.00" arrivalLane="-E0_0" arrivalPos="92.80" arrivalSpeed="11.31" duration="26.00" routeLength="194.90" waitingTime="0.00" waitingCount="0" stopTime="0.00" timeLoss="8.99" rerouteNo="0" devices="tripinfo_veh_14 emissions_veh_14" vType="car" speedFactor="0.83" vaporized="">
        <emissions CO_abs="1734.650739" CO2_abs="74951.665121" HC_abs="9.559269" PMx_abs="1.095807" NOx_abs="29.221939" fuel_abs="23906.764136" electricity_abs="0"/>
    </tripinfo>
    <tripinfo id="veh_0.1" depart="6.00" departLane="E0_0" departPos="5.10" departSpeed="0.00" departDelay="5.80" arrival="32.00" arrivalLane="E9_0" arrivalPos="92.80" arrivalSpeed="12.93" duration="26.00" routeLength="194.90" waitingTime="0.00" waitingCount="0" stopTime="0.00" timeLoss="10.71" rerouteNo="0" devices="tripinfo_veh_0.1 emissions_veh_0.1" vType="car" speedFactor="0.94" vaporized="">
        <emissions CO_abs="1865.711226" CO2_abs="80796.663540" HC_abs="10.311289" PMx_abs="1.252379" NOx_abs="31.909611" fuel_abs="25771.013260" electricity_abs="0"/>
    </tripinfo>
    <tripinfo id="veh_14.1" depart="6.00" departLane="-E9_0" departPos="5.10" departSpeed="0.00" departDelay="5.20" arrival="32.00" arrivalLane="-E0_0" arrivalPos="92.80" arrivalSpeed="13.60" duration="26.00" routeLength="194.90" waitingTime="0.00" waitingCount="0" stopTime="0.00" timeLoss="11.41" rerouteNo="0" devices="tripinfo_veh_14.1 emissions_veh_14.1" vType="car" speedFactor="1.05" vaporized="">
        <emissions CO_abs="1916.675527" CO2_abs="82399.460775" HC_abs="10.584002" PMx_abs="1.330233" NOx_abs="32.933041" fuel_abs="26282.184625" electricity_abs="0"/>
    </tripinfo>
    <tripinfo id="veh_0.2" depart="11.00" departLane="E0_0" departPos="5.10" departSpeed="0.00" departDelay="10.80" arrival="38.00" arrivalLane="E9_0" arrivalPos="92.80" arrivalSpeed="13.78" duration="27.00" routeLength="194.90" waitingTime="0.00" waitingCount="0" stopTime="0.00" timeLoss="13.00" rerouteNo="0" devices="tripinfo_veh_0.2 emissions_veh_0.2" vType="car" speedFactor="1.01" vaporized="">
        <emissions CO_abs="2112.286429" CO2_abs="86392.439493" HC_abs="11.598934" PMx_abs="1.395978" NOx_abs="34.603973" fuel_abs="27555.855165" electricity_abs="0"/>
    </tripinfo>
    <tripinfo id="veh_14.2" depart="11.00" departLane="-E9_0" departPos="5.10" departSpeed="0.00" departDelay="10.20" arrival="38.00" arrivalLane="-E0_0" arrivalPos="92.80" arrivalSpeed="12.10" duration="27.00" routeLength="194.90" waitingTime="0.00" waitingCount="0" stopTime="0.00" timeLoss="10.60" rerouteNo="0" devices="tripinfo_veh_14.2 emissions_veh_14.2" vType="car" speedFactor="0.89" vaporized="">
        <emissions CO_abs="1898.070297" CO2_abs="78703.219767" HC_abs="10.405527" PMx_abs="1.215609" NOx_abs="31.163286" fuel_abs="25103.335794" electricity_abs="0"/>
    </tripinfo>
    <tripinfo id="veh_24" depart="16.00" departLane="-E9_0" departPos="5.10" departSpeed="0.00" departDelay="14.60" arrival="42.00" arrivalLane="-E0_0" arrivalPos="92.80" arrivalSpeed="12.84" duration="26.00" routeLength="194.90" waitingTime="0.00" waitingCount="0" stopTime="0.00" timeLoss="10.37" rerouteNo="0" devices="tripinfo_veh_24 emissions_veh_24" vType="car" speedFactor="0.94" vaporized="">
        <emissions CO_abs="1813.390711" CO2_abs="80322.749260" HC_abs="10.028080" PMx_abs="1.230553" NOx_abs="31.572153" fuel_abs="25619.843376" electricity_abs="0"/>
    </tripinfo>
    <tripinfo id="veh_24.1" depart="21.00" departLane="-E9_0" departPos="5.10" departSpeed="0.00" departDelay="19.60" arrival="47.00" arrivalLane="-E0_0" arrivalPos="92.80" arrivalSpeed="11.63" duration="26.00" routeLength="194.90" waitingTime="0.00" waitingCount="0" stopTime="0.00" timeLoss="8.79" rerouteNo="0" devices="tripinfo_veh_24.1 emissions_veh_24.1" vType="car" speedFactor="0.86" vaporized="">
        <emissions CO_abs="1645.555761" CO2_abs="75710.195470" HC_abs="9.182173" PMx_abs="1.078057" NOx_abs="29.355212" fuel_abs="24148.666232" electricity_abs="0"/>
    </tripinfo>
    <tripinfo id="veh_1" depart="18.00" departLane="E0_0" departPos="8.10" departSpeed="0.00" departDelay="17.30" arrival="52.00" arrivalLane="E9_0" arrivalPos="92.80" arrivalSpeed="9.89" duration="34.00" routeLength="191.90" waitingTime="0.00" waitingCount="0" stopTime="0.00" timeLoss="14.26" rerouteNo="0" devices="tripinfo_veh_1 emissions_veh_1" vType="truck" speedFactor="1.08" vaporized="">
        <emissions CO_abs="2720.279400" CO2_abs="88524.689996" HC_abs="14.379450" PMx_abs="1.353141" NOx_abs="35.285949" fuel_abs="28236.376056" electricity_abs="0"/>
    </tripinfo>
    <tripinfo id="veh_48" depart="14.00" departLane="-E8_0" departPos="5.10" departSpeed="0.00" departDelay="0.30" arrival="74.00" arrivalLane="E11_0" arrivalPos="92.80" arrivalSpeed="14.00" duration="60.00" routeLength="394.90" waitingTime="9.00" waitingCount="1" stopTime="0.00" timeLoss="31.42" rerouteNo="0" devices="tripinfo_veh_48 emissions_veh_48" vType="car" speedFactor="1.04" vaporized="">
        <emissions CO_abs="4900.174800" CO2_abs="172694.670721" HC_abs="26.015102" PMx_abs="2.848023" NOx_abs="69.105445" fuel_abs="55083.288494" electricity_abs="0"/>
    </tripinfo>
    <tripinfo id="veh_48.1" depart="19.00" departLane="-E8_0" departPos="5.10" departSpeed="0.00" departDelay="5.30" arrival="77.00" arrivalLane="E11_0" arrivalPos="92.80" arrivalSpeed="13.63" duration="58.00" routeLength="394.90" waitingTime="5.00" waitingCount="1" stopTime="0.00" timeLoss="29.45" rerouteNo="0" devices="tripinfo_veh_48.1 emissions_veh_48.1" vType="car" speedFactor="1.04" vaporized="">
        <emissions CO_abs="4504.082597" CO2_abs="165900.561833" HC_abs="24.048629" PMx_abs="2.669253" NOx_abs="65.907920" fuel_abs="52916.163916" electricity_abs="0"/>
    </tripinfo>
    <tripinfo id="veh_116" depart="41.00" departLane="-E8_0" departPos="5.10" departSpeed="0.00" departDelay="0.20" arrival="83.00" arrivalLane="E11_0" arrivalPos="92.80" arrivalSpeed="12.55" duration="42.00" routeLength="394.90" waitingTime="0.00" waitingCount="0" stopTime="0.00" timeLoss="10.72" rerouteNo="0" devices="tripinfo_veh_116 emissions_veh_116" vType="car" speedFactor="0.91" vaporized="">
        <emissions CO_abs="1924.625645" CO2_abs="112326.333653" HC_abs="11.121823" PMx_abs="1.418301" NOx_abs="41.721781" fuel_abs="35827.729541" electricity_abs="0"/>
    </tripinfo>
    <tripinfo id="veh_116.1" depart="46.00" departLane="-E8_0" departPos="5.10" departSpeed="0.00" departDelay="5.20" arrival="86.00" arrivalLane="E11_0" arrivalPos="92.80" arrivalSpeed="13.76" duration="40.00" routeLength="394.90" waitingTime="0.00" waitingCount="0" stopTime="0.00" timeLoss="11.43" rerouteNo="0" devices="tripinfo_veh_116.1 emissions_veh_116.1" vType="car" speedFactor="1.00" vaporized="">
        <emissions CO_abs="1885.114499" CO2_abs="116489.788261" HC_abs="10.879424" PMx_abs="1.485837" NOx_abs="43.030645" fuel_abs="37155.610148" electricity_abs="0"/>
    </tripinfo>
    <tripinfo id="veh_64" depart="21.00" departLane="-E11_0" departPos="5.10" departSpeed="0.00" departDelay="0.20" arrival="87.00" arrivalLane="E1_0" arrivalPos="92.80" arrivalSpeed="11.25" duration="66.00" routeLength="189.53" waitingTime="30.00" waitingCount="1" stopTime="0.00" timeLoss="51.74" rerouteNo="0" devices="tripinfo_veh_64 emissions_veh_64" vType="car" speedFactor="1.02" vaporized="">
        <emissions CO_abs="8202.238706" CO2_abs="184921.332746" HC_abs="41.633116" PMx_abs="3.844103" NOx_abs="80.119342" fuel_abs="58984.097325" electricity_abs="0"/>
    </tripinfo>
    <tripinfo id="veh_64.1" depart="26.00" departLane="-E11_0" departPos="5.10" departSpeed="0.00" departDelay="5.20" arrival="90.00" arrivalLane="E1_0" arrivalPos="92.80" arrivalSpeed="11.06" duration="64.00" routeLength="189.53" waitingTime="27.00" waitingCount="1" stopTime="0.00" timeLoss="49.12" rerouteNo="0" devices="tripinfo_veh_64.1 emissions_veh_64.1" vType="car" speedFactor="0.97" vaporized="">
        <emissions CO_abs="7781.842956" CO2_abs="176588.788466" HC_abs="39.517668" PMx_abs="3.622528" NOx_abs="76.220075" fuel_abs="56326.298162" electricity_abs="0"/>
    </tripinfo>
    <tripinfo id="veh_64.2" depart="31.00" departLane="-E11_0" departPos="5.10" departSpeed="0.00" departDelay="10.20" arrival="92.00" arrivalLane="E1_0" arrivalPos="92.80" arrivalSpeed="11.18" duration="61.00" routeLength="189.53" waitingTime="24.00" waitingCount="1" stopTime="0.00" timeLoss="45.71" rerouteNo="0" devices="tripinfo_veh_64.2 emissions_veh_64.2" vType="car" speedFactor="0.94" vaporized="">
        <emissions CO_abs="7413.278717" CO2_abs="170243.750806" HC_abs="37.688257" PMx_abs="3.456674" NOx_abs="73.269344" fuel_abs="54302.412232" electricity_abs="0"/>
    </tripinfo>
    <tripinfo id="veh_116.2" depart="51.00" departLane="-E8_0" departPos="5.10" departSpeed="0.00" departDelay="10.20" arrival="92.00" arrivalLane="E11_0" arrivalPos="92.80" arrivalSpeed="13.96" duration="41.00" routeLength="394.90" waitingTime="0.00" waitingCount="0" stopTime="0.00" timeLoss="12.43" rerouteNo="0" devices="tripinfo_veh_116.2 emissions_veh_116.2" vType="car" speedFactor="1.03" vaporized="">
        <emissions CO_abs="2041.669907" CO2_abs="118115.514680" HC_abs="11.747134" PMx_abs="1.578656" NOx_abs="44.115664" fuel_abs="37674.164294" electricity_abs="0"/>
    </tripinfo>
    <tripinfo id="veh_86" depart="36.00" departLane="-E11_0" departPos="5.10" departSpeed="0.00" departDelay="10.20" arrival="94.00" arrivalLane="E1_0" arrivalPos="92.80" arrivalSpeed="12.15" duration="58.00" routeLength="189.53" waitingTime="21.00" waitingCount="1" stopTime="0.00" timeLoss="43.45" rerouteNo="0" devices="tripinfo_veh_86 emissions_veh_86" vType="car" speedFactor="1.12" vaporized="">
        <emissions CO_abs="6845.102381" CO2_abs="162610.316229" HC_abs="34.927759" PMx_abs="3.279112" NOx_abs="69.829373" fuel_abs="51867.462803" electricity_abs="0"/>
    </tripinfo>
    <tripinfo id="veh_86.1" depart="41.00" departLane="-E11_0" departPos="5.10" departSpeed="0.00" departDelay="15.20" arrival="96.00" arrivalLane="E1_0" arrivalPos="92.80" arrivalSpeed="12.87" duration="55.00" routeLength="189.53" waitingTime="18.00" waitingCount="1" stopTime="0.00" timeLoss="40.38" rerouteNo="0" devices="tripinfo_veh_86.1 emissions_veh_86.1" vType="car" speedFactor="1.10" vaporized="">
        <emissions CO_abs="6394.676372" CO2_abs="157915.221466" HC_abs="32.765020" PMx_abs="3.124373" NOx_abs="67.381917" fuel_abs="50369.789456" electricity_abs="0"/>
    </tripinfo>
    <tripinfo id="veh_147" depart="56.00" departLane="-E8_0" departPos="5.10" departSpeed="0.00" departDelay="11.40" arrival="96.00" arrivalLane="E11_0" arrivalPos="92.80" arrivalSpeed="13.46" duration="40.00" routeLength="394.90" waitingTime="0.00" waitingCount="0" stopTime="0.00" timeLoss="10.47" rerouteNo="0" devices="tripinfo_veh_147 emissions_veh_147" vType="car" speedFactor="0.97" vaporized="">
        <emissions CO_abs="1815.403933" CO2_abs="113594.879736" HC_abs="10.586840" PMx_abs="1.450508" NOx_abs="42.036301" fuel_abs="36232.242034" electricity_abs="0"/>
    </tripinfo>
    <tripinfo id="veh_106" depart="46.00" departLane="-E11_0" departPos="5.10" departSpeed="0.00" departDelay="10.10" arrival="98.00" arrivalLane="E1_0" arrivalPos="92.80" arrivalSpeed="13.10" duration="52.00" routeLength="189.53" waitingTime="15.00" waitingCount="1" stopTime="0.00" timeLoss="37.22" rerouteNo="0" devices="tripinfo_veh_106 emissions_veh_106" vType="car" speedFactor="1.13" vaporized="">
        <emissions CO_abs="5811.411194" CO2_abs="147690.773756" HC_abs="29.872351" PMx_abs="2.890453" NOx_abs="62.796619" fuel_abs="47108.454944" electricity_abs="0"/>
    </tripinfo>
    <tripinfo id="veh_27" depart="26.00" departLane="-E9_0" departPos="5.10" departSpeed="0.00" departDelay="23.50" arrival="102.00" arrivalLane="-E0_0" arrivalPos="92.80" arrivalSpeed="11.64" duration="76.00" routeLength="194.90" waitingTime="39.00" waitingCount="1" stopTime="0.00" timeLoss="61.52" rerouteNo="0" devices="tripinfo_veh_27 emissions_veh_27" vType="car" speedFactor="1.12" vaporized="">
        <emissions CO_abs="9805.647988" CO2_abs="212934.995528" HC_abs="49.586099" PMx_abs="4.490870" NOx_abs="92.576666" fuel_abs="67919.739441" electricity_abs="0"/>
    </tripinfo>
    <tripinfo id="veh_147.1" depart="61.00" departLane="-E8_0" departPos="5.10" departSpeed="0.00" departDelay="16.40" arrival="102.00" arrivalLane="E11_0" arrivalPos="92.80" arrivalSpeed="13.29" duration="41.00" routeLength="394.90" waitingTime="0.00" waitingCount="0" stopTime="0.00" timeLoss="11.33" rerouteNo="0" devices="tripinfo_veh_147.1 emissions_veh_147.1" vType="car" speedFactor="0.97" vaporized="">
        <emissions CO_abs="1958.426241" CO2_abs="115408.196657" HC_abs="11.171057" PMx_abs="1.477996" NOx_abs="42.812919" fuel_abs="36810.663595" electricity_abs="0"/>
    </tripinfo>
    <tripinfo id="veh_106.1" depart="51.00" departLane="-E11_0" departPos="5.10" departSpeed="0.00" departDelay="15.10" arrival="103.00" arrivalLane="E1_0" arrivalPos="92.80" arrivalSpeed="9.94" duration="52.00" routeLength="189.53" waitingTime="12.00" waitingCount="1" stopTime="0.00" timeLoss="32.46" rerouteNo="0" devices="tripinfo_veh_106.1 emissions_veh_106.1" vType="car" speedFactor="0.73" vaporized="">
        <emissions CO_abs="5428.718240" CO2_abs="134572.633796" HC_abs="27.809447" PMx_abs="2.577955" NOx_abs="57.029318" fuel_abs="42924.338463" electricity_abs="0"/>
    </tripinfo>
    <tripinfo id="veh_27.1" depart="31.00" departLane="-E9_0" departPos="5.10" departSpeed="0.00" departDelay="28.50" arrival="105.00" arrivalLane="-E0_0" arrivalPos="92.80" arrivalSpeed="11.15" duration="74.00" routeLength="194.90" waitingTime="36.00" waitingCount="1" stopTime="0.00" timeLoss="59.37" rerouteNo="0" devices="tripinfo_veh_27.1 emissions_veh_27.1" vType="car" speedFactor="0.99" vaporized="">
        <emissions CO_abs="9283.345858" CO2_abs="202838.790823" HC_abs="46.966747" PMx_abs="4.237795" NOx_abs="87.995200" fuel_abs="64699.363352" electricity_abs="0"/>
    </tripinfo>
    <tripinfo id="veh_181" depart="61.00" departLane="-E11_0" departPos="5.10" departSpeed="0.00" departDelay="0.20" arrival="106.00" arrivalLane="E1_0" arrivalPos="92.80" arrivalSpeed="10.14" duration="45.00" routeLength="189.53" waitingTime="4.00" waitingCount="1" stopTime="0.00" timeLoss="25.18" rerouteNo="0" devices="tripinfo_veh_181 emissions_veh_181" vType="car" speedFactor="0.75" vaporized="">
        <emissions CO_abs="4409.370831" CO2_abs="120233.968303" HC_abs="22.823994" PMx_abs="2.163782" NOx_abs="50.132005" fuel_abs="38350.637687" electricity_abs="0"/>
    </tripinfo>
    <tripinfo id="veh_29" depart="36.00" departLane="-E9_0" departPos="5.10" departSpeed="0.00" departDelay="32.20" arrival="107.00" arrivalLane="-E0_0" arrivalPos="92.80" arrivalSpeed="11.51" duration="71.00" routeLength="194.90" waitingTime="31.00" waitingCount="1" stopTime="0.00" timeLoss="55.32" rerouteNo="0" devices="tripinfo_veh_29 emissions_veh_29" vType="car" speedFactor="0.94" vaporized="">
        <emissions CO_abs="8764.087207" CO2_abs="194446.328188" HC_abs="44.404294" PMx_abs="4.022338" NOx_abs="84.104834" fuel_abs="62022.383668" electricity_abs="0"/>
    </tripinfo>
    <tripinfo id="veh_29.1" depart="41.00" departLane="-E9_0" departPos="5.10" departSpeed="0.00" departDelay="37.20" arrival="108.00" arrivalLane="-E0_0" arrivalPos="92.80" arrivalSpeed="11.31" duration="67.00" routeLength="194.90" waitingTime="31.00" waitingCount="1" stopTime="0.00" timeLoss="53.05" rerouteNo="0" devices="tripinfo_veh_29.1 emissions_veh_29.1" vType="car" speedFactor="1.16" vaporized="">
        <emissions CO_abs="8319.410999" CO2_abs="185497.451588" HC_abs="42.170189" PMx_abs="3.818528" NOx_abs="80.111127" fuel_abs="59167.963058" electricity_abs="0"/>
    </tripinfo>
    <tripinfo id="veh_181.1" depart="66.00" departLane="-E11_0" departPos="5.10" departSpeed="0.00" departDelay="5.20" arrival="108.00" arrivalLane="E1_0" arrivalPos="92.80" arrivalSpeed="11.77" duration="42.00" routeLength="189.53" waitingTime="1.00" waitingCount="1" stopTime="0.00" timeLoss="27.00" rerouteNo="0" devices="tripinfo_veh_181.1 emissions_veh_181.1" vType="car" speedFactor="1.13" vaporized="">
        <emissions CO_abs="3926.630961" CO2_abs="114639.546881" HC_abs="20.505367" PMx_abs="2.054169" NOx_abs="47.706826" fuel_abs="36566.039872" electricity_abs="0"/>
    </tripinfo>
    <tripinfo id="veh_1.1" depart="26.00" departLane="E0_0" departPos="8.10" departSpeed="0.00" departDelay="25.30" arrival="109.00" arrivalLane="E9_0" arrivalPos="92.80" arrivalSpeed="8.24" duration="83.00" routeLength="191.90" waitingTime="34.00" waitingCount="1" stopTime="0.00" timeLoss="63.04" rerouteNo="0" devices="tripinfo_veh_1.1 emissions_veh_1.1" vType="truck" speedFactor="1.03" vaporized="">
        <emissions CO_abs="10325.508078" CO2_abs="210912.743603" HC_abs="51.869667" PMx_abs="4.376408" NOx_abs="91.506660" fuel_abs="67275.152523" electricity_abs="0"/>
    </tripinfo>
    <tripinfo id="veh_181.2" depart="71.00" departLane="-E11_0" departPos="5.10" departSpeed="0.00" departDelay="10.20" arrival="109.00" arrivalLane="E1_0" arrivalPos="92.80" arrivalSpeed="11.55" duration="38.00" routeLength="189.53" waitingTime="0.00" waitingCount="0" stopTime="0.00" timeLoss="23.88" rerouteNo="0" devices="tripinfo_veh_181.2 emissions_veh_181.2" vType="car" speedFactor="1.04" vaporized="">
        <emissions CO_abs="3347.866241" CO2_abs="101202.714263" HC_abs="17.554530" PMx_abs="1.756266" NOx_abs="41.766243" fuel_abs="32280.144194" electricity_abs="0"/>
    </tripinfo>
    <tripinfo id="veh_32" depart="46.00" departLane="-E9_0" departPos="5.10" departSpeed="0.00" departDelay="40.50" arrival="110.00" arrivalLane="-E0_0" arrivalPos="92.80" arrivalSpeed="11.85" duration="64.00" routeLength="194.90" waitingTime="27.00" waitingCount="1" stopTime="0.00" timeLoss="47.90" rerouteNo="0" devices="tripinfo_veh_32 emissions_veh_32" vType="car" speedFactor="0.89" vaporized="">
        <emissions CO_abs="7791.139007" CO2_abs="178297.481024" HC_abs="39.596158" PMx_abs="3.625433" NOx_abs="76.694576" fuel_abs="56871.316439" electricity_abs="0"/>
    </tripinfo>
    <tripinfo id="veh_26" depart="32.00" departLane="E0_0" departPos="5.10" departSpeed="0.00" departDelay="29.50" arrival="111.00" arrivalLane="E9_0" arrivalPos="92.80" arrivalSpeed="8.95" duration="79.00" routeLength="194.90" waitingTime="33.00" waitingCount="1" stopTime="0.00" timeLoss="64.68" rerouteNo="0" devices="tripinfo_veh_26 emissions_veh_26" vType="car" speedFactor="1.09" vaporized="">
        <emissions CO_abs="9665.413881" CO2_abs="200083.580328" HC_abs="48.625450" PMx_abs="4.182063" NOx_abs="86.949174" fuel_abs="63820.845513" electricity_abs="0"/>
    </tripinfo>
    <tripinfo id="veh_32.1" depart="51.00" departLane="-E9_0" departPos="5.10" departSpeed="0.00" departDelay="45.50" arrival="112.00" arrivalLane="-E0_0" arrivalPos="92.80" arrivalSpeed="11.35" duration="61.00" routeLength="194.90" waitingTime="24.00" waitingCount="1" stopTime="0.00" timeLoss="43.45" rerouteNo="0" devices="tripinfo_veh_32.1 emissions_veh_32.1" vType="car" speedFactor="0.83" vaporized="">
        <emissions CO_abs="7166.442769" CO2_abs="165751.985284" HC_abs="36.457563" PMx_abs="3.333262" NOx_abs="71.018124" fuel_abs="52869.692518" electricity_abs="0"/>
    </tripinfo>
    <tripinfo id="veh_26.1" depart="38.00" departLane="E0_0" departPos="5.10" departSpeed="0.00" departDelay="35.50" arrival="113.00" arrivalLane="E9_0" arrivalPos="92.80" arrivalSpeed="9.27" duration="75.00" routeLength="194.90" waitingTime="30.00" waitingCount="1" stopTime="0.00" timeLoss="60.60" rerouteNo="0" devices="tripinfo_veh_26.1 emissions_veh_26.1" vType="car" speedFactor="1.03" vaporized="">
        <emissions CO_abs="9109.199451" CO2_abs="194214.445828" HC_abs="45.955288" PMx_abs="4.006308" NOx_abs="84.068762" fuel_abs="61948.648255" electricity_abs="0"/>
    </tripinfo>
    <tripinfo id="veh_254" depart="85.00" departLane="-E11_0" departPos="5.10" departSpeed="0.00" departDelay="0.40" arrival="113.00" arrivalLane="E1_0" arrivalPos="92.80" arrivalSpeed="12.92" duration="28.00" routeLength="189.53" waitingTime="0.00" waitingCount="0" stopTime="0.00" timeLoss="13.08" rerouteNo="0" devices="tripinfo_veh_254 emissions_veh_254" vType="car" speedFactor="1.12" vaporized="">
        <emissions CO_abs="2152.317167" CO2_abs="88094.790069" HC_abs="11.818524" PMx_abs="1.432918" NOx_abs="35.584183" fuel_abs="28098.809262" electricity_abs="0"/>
    </tripinfo>
    <tripinfo id="veh_34" depart="56.00" departLane="-E9_0" departPos="5.10" departSpeed="0.00" departDelay="49.30" arrival="114.00" arrivalLane="-E0_0" arrivalPos="92.80" arrivalSpeed="11.73" duration="58.00" routeLength="194.90" waitingTime="21.00" waitingCount="1" stopTime="0.00" timeLoss="41.06" rerouteNo="0" devices="tripinfo_veh_34 emissions_veh_34" vType="car" speedFactor="0.87" vaporized="">
        <emissions CO_abs="6718.136035" CO2_abs="158928.428259" HC_abs="34.258174" PMx_abs="3.170230" NOx_abs="67.945070" fuel_abs="50693.122115" electricity_abs="0"/>
    </tripinfo>
    <tripinfo id="veh_26.2" depart="43.00" departLane="E0_0" departPos="5.10" departSpeed="0.00" departDelay="40.50" arrival="115.00" arrivalLane="E9_0" arrivalPos="92.80" arrivalSpeed="10.15" duration="72.00" routeLength="194.90" waitingTime="28.00" waitingCount="1" stopTime="0.00" timeLoss="57.40" rerouteNo="0" devices="tripinfo_veh_26.2 emissions_veh_26.2" vType="car" speedFactor="1.05" vaporized="">
        <emissions CO_abs="8704.264459" CO2_abs="190716.613520" HC_abs="44.028989" PMx_abs="3.887268" NOx_abs="82.260164" fuel_abs="60832.843051" electricity_abs="0"/>
    </tripinfo>
    <tripinfo id="veh_34.1" depart="61.00" departLane="-E9_0" departPos="5.10" departSpeed="0.00" departDelay="54.30" arrival="115.00" arrivalLane="-E0_0" arrivalPos="92.80" arrivalSpeed="12.62" duration="54.00" routeLength="194.90" waitingTime="18.00" waitingCount="1" stopTime="0.00" timeLoss="38.47" rerouteNo="0" devices="tripinfo_veh_34.1 emissions_veh_34.1" vType="car" speedFactor="0.92" vaporized="">
        <emissions CO_abs="6205.787338" CO2_abs="152369.002700" HC_abs="31.773562" PMx_abs="2.996280" NOx_abs="64.806295" fuel_abs="48600.777590" electricity_abs="0"/>
    </tripinfo>
    <tripinfo id="veh_28" depart="48.00" departLane="E0_0" departPos="5.10" departSpeed="0.00" departDelay="44.90" arrival="116.00" arrivalLane="E9_0" arrivalPos="92.80" arrivalSpeed="10.02" duration="68.00" routeLength="194.90" waitingTime="25.00" waitingCount="1" stopTime="0.00" timeLoss="52.74" rerouteNo="0" devices="tripinfo_veh_28 emissions_veh_28" vType="car" speedFactor="0.93" vaporized="">
        <emissions CO_abs="8020.074733" CO2_abs="177339.500836" HC_abs="40.603422" PMx_abs="3.594897" NOx_abs="76.386123" fuel_abs="56565.921673" electricity_abs="0"/>
    </tripinfo>
    <tripinfo id="veh_34.2" depart="66.00" departLane="-E9_0" departPos="5.10" departSpeed="0.00" departDelay="59.30" arrival="117.00" arrivalLane="-E0_0" arrivalPos="92.80" arrivalSpeed="12.88" duration="51.00" routeLength="194.90" waitingTime="16.00" waitingCount="1" stopTime="0.00" timeLoss="35.68" rerouteNo="0" devices="tripinfo_veh_34.2 emissions_veh_34.2" vType="car" speedFactor="0.95" vaporized="">
        <emissions CO_abs="5781.907215" CO2_abs="144808.252620" HC_abs="29.676485" PMx_abs="2.864583" NOx_abs="61.655146" fuel_abs="46189.053781" electricity_abs="0"/>
    </tripinfo>
    <tripinfo id="veh_28.1" depart="54.00" departLane="E0_0" departPos="5.10" departSpeed="0.00" departDelay="50.90" arrival="118.00" arrivalLane="E9_0" arrivalPos="92.80" arrivalSpeed="10.14" duration="64.00" routeLength="194.90" waitingTime="22.00" waitingCount="1" stopTime="0.00" timeLoss="47.77" rerouteNo="0" devices="tripinfo_veh_28.1 emissions_veh_28.1" vType="car" speedFactor="0.88" vaporized="">
        <emissions CO_abs="7192.118328" CO2_abs="161686.379030" HC_abs="36.471606" PMx_abs="3.251513" NOx_abs="69.467166" fuel_abs="51573.004578" electricity_abs="0"/>
    </tripinfo>
    <tripinfo id="veh_28.2" depart="59.00" departLane="E0_0" departPos="5.10" departSpeed="0.00" departDelay="55.90" arrival="120.00" arrivalLane="E9_0" arrivalPos="92.80" arrivalSpeed="10.63" duration="61.00" routeLength="194.90" waitingTime="20.00" waitingCount="1" stopTime="0.00" timeLoss="45.66" rerouteNo="0" devices="tripinfo_veh_28.2 emissions_veh_28.2" vType="car" speedFactor="0.94" vaporized="">
        <emissions CO_abs="6801.636751" CO2_abs="157569.322367" HC_abs="34.596838" PMx_abs="3.125103" NOx_abs="67.407017" fuel_abs="50259.708085" electricity_abs="0"/>
    </tripinfo>
    <tripinfo id="veh_30" depart="64.00" departLane="E0_0" departPos="5.10" departSpeed="0.00" departDelay="59.40" arrival="122.00" arrivalLane="E9_0" arrivalPos="92.80" arrivalSpeed="11.14" duration="58.00" routeLength="194.90" waitingTime="16.00" waitingCount="1" stopTime="0.00" timeLoss="43.45" rerouteNo="0" devices="tripinfo_veh_30 emissions_veh_30" vType="car" speedFactor="1.02" vaporized="">
        <emissions CO_abs="6394.159189" CO2_abs="153665.888954" HC_abs="32.642044" PMx_abs="2.960840" NOx_abs="65.181654" fuel_abs="49014.580641" electricity_abs="0"/>
    </tripinfo>
    <tripinfo id="veh_30.1" depart="69.00" departLane="E0_0" departPos="5.10" departSpeed="0.00" departDelay="64.40" arrival="123.00" arrivalLane="E9_0" arrivalPos="92.80" arrivalSpeed="10.83" duration="54.00" routeLength="194.90" waitingTime="13.00" waitingCount="1" stopTime="0.00" timeLoss="40.08" rerouteNo="0" devices="tripinfo_veh_30.1 emissions_veh_30.1" vType="car" speedFactor="1.01" vaporized="">
        <emissions CO_abs="6070.117283" CO2_abs="145276.014300" HC_abs="30.966891" PMx_abs="2.767551" NOx_abs="61.433783" fuel_abs="46338.525363" electricity_abs="0"/>
    </tripinfo>
    <tripinfo id="veh_44" depart="72.00" departLane="-E9_0" departPos="8.10" departSpeed="0.00" departDelay="60.30" arrival="124.00" arrivalLane="-E0_0" arrivalPos="92.80" arrivalSpeed="9.87" duration="52.00" routeLength="191.90" waitingTime="10.00" waitingCount="1" stopTime="0.00" timeLoss="32.81" rerouteNo="0" devices="tripinfo_veh_44 emissions_veh_44" vType="truck" speedFactor="1.10" vaporized="">
        <emissions CO_abs="5573.245147" CO2_abs="133639.951538" HC_abs="28.429048" PMx_abs="2.495656" NOx_abs="56.157059" fuel_abs="42627.036235" electricity_abs="0"/>
    </tripinfo>
    <tripinfo id="veh_30.2" depart="74.00" departLane="E0_0" departPos="5.10" departSpeed="0.00" departDelay="69.40" arrival="125.00" arrivalLane="E9_0" arrivalPos="92.80" arrivalSpeed="11.63" duration="51.00" routeLength="194.90" waitingTime="12.00" waitingCount="1" stopTime="0.00" timeLoss="36.35" rerouteNo="0" devices="tripinfo_veh_30.2 emissions_veh_30.2" vType="car" speedFactor="0.97" vaporized="">
        <emissions CO_abs="5445.729713" CO2_abs="135740.138232" HC_abs="27.910190" PMx_abs="2.572486" NOx_abs="57.283003" fuel_abs="43296.751986" electricity_abs="0"/>
    </tripinfo>
    <tripinfo id="veh_36" depart="79.00" departLane="E0_0" departPos="5.10" departSpeed="0.00" departDelay="71.40" arrival="127.00" arrivalLane="E9_0" arrivalPos="92.80" arrivalSpeed="11.90" duration="48.00" routeLength="194.90" waitingTime="10.00" waitingCount="1" stopTime="0.00" timeLoss="33.60" rerouteNo="0" devices="tripinfo_veh_36 emissions_veh_36" vType="car" speedFactor="1.13" vaporized="">
        <emissions CO_abs="4867.434868" CO2_abs="126674.632466" HC_abs="25.069353" PMx_abs="2.364749" NOx_abs="53.178535" fuel_abs="40405.054393" electricity_abs="0"/>
    </tripinfo>
    <tripinfo id="veh_44.1" depart="80.00" departLane="-E9_0" departPos="8.10" departSpeed="0.00" departDelay="68.30" arrival="127.00" arrivalLane="-E0_0" arrivalPos="92.80" arrivalSpeed="9.84" duration="47.00" routeLength="191.90" waitingTime="8.00" waitingCount="1" stopTime="0.00" timeLoss="27.49" rerouteNo="0" devices="tripinfo_veh_44.1 emissions_veh_44.1" vType="truck" speedFactor="0.90" vaporized="">